LAMMPS chain data file

10240 atoms
0 bonds
0 angles
0 dihedrals
0 impropers

2 atom types
0 bond types
0 angle types
0 dihedral types
0 improper types

-250.000000 250.000000 xlo xhi
-250.000000 250.000000 ylo yhi
-250.000000 250.000000 zlo zhi

Masses

1 94.247780
2 18.84956

Atoms

1 1 1 -218.750000 -218.750000 -218.750000
2 1 2 -219.778249 -215.115987 -214.087741
3 1 2 -218.106546 -213.579669 -215.774493
4 1 2 -219.072211 -218.822226 -212.759093
5 1 2 -222.804573 -214.414541 -217.875793
6 1 2 -214.410380 -216.043305 -215.612884
7 1 2 -222.960415 -220.526559 -214.862038
8 1 2 -218.835414 -213.054277 -220.634528
9 1 2 -215.285740 -221.090007 -214.446134
10 1 2 -224.686433 -218.341783 -219.519498
11 1 2 -213.897772 -215.528300 -220.191018
12 1 2 -219.925023 -223.879960 -215.868537
13 1 2 -221.387055 -215.860759 -223.299530
14 1 2 -213.097706 -220.749520 -218.518728
15 1 2 -223.100009 -222.657246 -220.095681
16 1 2 -216.281312 -216.936230 -223.909052
17 1 2 -216.573216 -224.332241 -219.066540
18 1 2 -221.239153 -220.544415 -223.905986
19 1 2 -215.217388 -221.147578 -222.965717
20 1 2 -217.721751 -222.384013 -223.412259
21 2 1 -218.750000 -156.250000 -218.750000
22 2 2 -223.539148 -155.369021 -215.244584
23 2 2 -223.707207 -153.277265 -217.140980
24 2 2 -220.375906 -156.286144 -212.974610
25 2 2 -224.474336 -157.963666 -219.293441
26 2 2 -220.022552 -151.020869 -216.097303
27 2 2 -220.041374 -160.623588 -214.850759
28 2 2 -223.219658 -153.934608 -222.015137
29 2 2 -216.343408 -153.951165 -213.757639
30 2 2 -221.470780 -161.444511 -220.020594
31 2 2 -219.062060 -150.553467 -220.607990
32 2 2 -215.571864 -159.404363 -214.756324
33 2 2 -221.209792 -157.577693 -224.059110
34 2 2 -214.638363 -152.029854 -217.616504
35 2 2 -216.908083 -161.926380 -219.371328
36 2 2 -217.915309 -153.486152 -224.009699
37 2 2 -212.904899 -156.740865 -217.487526
38 2 2 -216.943288 -159.514407 -223.448877
39 2 2 -214.061367 -154.320019 -221.958098
40 2 2 -213.960852 -157.130979 -222.255416
41 3 1 -218.750000 -93.750000 -218.750000
42 3 2 -218.119435 -98.181521 -214.754502
43 3 2 -216.357056 -96.179499 -213.813265
44 3 2 -218.233554 -99.719949 -218.445059
45 3 2 -221.356446 -94.747834 -213.438619
46 3 2 -213.454544 -96.092799 -217.178555
47 3 2 -222.688950 -98.260323 -219.126380
48 3 2 -217.598382 -91.418733 -213.342693
49 3 2 -215.453453 -97.777614 -221.735146
50 3 2 -224.416998 -93.682880 -216.780068
51 3 2 -213.473994 -91.459408 -217.042093
52 3 2 -220.815550 -97.174226 -223.223050
53 3 2 -221.147096 -89.331887 -215.473691
54 3 2 -213.848544 -93.453309 -222.197854
55 3 2 -224.119114 -93.280798 -221.386753
56 3 2 -216.642532 -88.193202 -217.925029
57 3 2 -218.185343 -93.638614 -224.722333
58 3 2 -222.323345 -89.107211 -220.044496
59 3 2 -216.602154 -89.349105 -222.216827
60 3 2 -219.380565 -89.318479 -222.745498
61 4 1 -218.750000 -31.250000 -218.750000
62 4 2 -218.946162 -36.206630 -215.374598
63 4 2 -220.990920 -36.619469 -217.284710
64 4 2 -218.489549 -33.006398 -213.018750
65 4 2 -216.240837 -36.657061 -219.433949
66 4 2 -223.748419 -33.320943 -216.156352
67 4 2 -214.241505 -32.010645 -214.864786
68 4 2 -220.404313 -35.914986 -222.141336
69 4 2 -221.372284 -29.326538 -213.707786
70 4 2 -213.220652 -33.172051 -220.066065
71 4 2 -224.342665 -32.317581 -220.642714
72 4 2 -216.082704 -27.763295 -214.659961
73 4 2 -217.081151 -33.355463 -224.114883
74 4 2 -223.512058 -27.809832 -217.530144
75 4 2 -213.391774 -28.605901 -219.296039
76 4 2 -221.598819 -30.677012 -223.999373
77 4 2 -219.094829 -25.429790 -217.333580
78 4 2 -215.770080 -28.875049 -223.384618
79 4 2 -221.322402 -26.799343 -221.844253
80 4 2 -218.553838 -26.293370 -222.125402
81 5 1 -218.750000 31.250000 -218.750000
82 5 2 -217.192351 30.939418 -212.964046
83 5 2 -216.005813 28.636101 -214.098444
84 5 2 -221.026863 32.040181 -213.255320
85 5 2 -213.823083 33.042198 -215.832207
86 5 2 -219.667059 26.423536 -215.305548
87 5 2 -219.899126 36.103446 -215.414798
88 5 2 -213.351620 28.676157 -218.267482
89 5 2 -223.840797 29.515691 -216.089932
90 5 2 -215.547252 36.322684 -218.648594
91 5 2 -217.669443 25.379300 -219.356030
92 5 2 -223.536419 34.781451 -217.963204
93 5 2 -213.474990 31.983475 -221.513383
94 5 2 -222.908675 27.088487 -219.927807
95 5 2 -219.507220 36.753793 -221.016028
96 5 2 -216.316779 27.839106 -223.044792
97 5 2 -224.095087 31.729735 -221.433262
98 5 2 -217.099208 33.861282 -223.893548
99 5 2 -220.564207 28.811286 -223.923135
100 5 2 -220.307649 31.560582 -224.535954
101 6 1 -218.750000 93.750000 -218.750000
102 6 2 -221.729147 97.551171 -215.189693
103 6 2 -222.313755 95.011375 -214.090753
104 6 2 -222.182739 98.664406 -219.004790
105 6 2 -217.295364 96.305058 -213.519731
106 6 2 -224.589733 93.237195 -217.471504
107 6 2 -217.560613 99.584228 -219.489694
108 6 2 -218.899272 91.559794 -213.166030
109 6 2 -223.434506 95.356101 -222.137601
110 6 2 -213.923885 96.672102 -216.707958
111 6 2 -222.277171 89.259633 -216.907268
112 6 2 -218.406671 97.409008 -223.492762
113 6 2 -214.666804 91.378383 -215.048251
114 6 2 -222.647393 90.788482 -222.219833
115 6 2 -213.716662 95.837792 -221.261301
116 6 2 -217.859348 87.962234 -217.442902
117 6 2 -218.839637 92.932693 -224.693397
118 6 2 -213.273630 91.437297 -219.562883
119 6 2 -218.221902 88.623994 -221.823301
120 6 2 -215.770853 89.948829 -222.310307
121 7 1 -218.750000 156.250000 -218.750000
122 7 2 -220.440390 158.301258 -213.370881
123 7 2 -220.758102 155.499741 -213.146016
124 7 2 -221.952243 160.654297 -216.230515
125 7 2 -215.753540 156.892468 -213.591661
126 7 2 -223.975729 154.866582 -216.146558
127 7 2 -217.646262 162.041683 -217.637269
128 7 2 -217.332100 152.220222 -214.536872
129 7 2 -224.166396 158.582960 -219.854516
130 7 2 -213.449142 158.624736 -217.246162
131 7 2 -221.724771 151.139015 -217.735815
132 7 2 -219.691016 161.365955 -221.740234
133 7 2 -213.840742 153.045722 -217.472586
134 7 2 -223.580805 154.416030 -221.799570
135 7 2 -214.605571 159.475246 -221.651982
136 7 2 -217.698262 150.462040 -219.930408
137 7 2 -220.595238 157.585459 -224.300824
138 7 2 -213.824186 154.806989 -221.857100
139 7 2 -219.302131 152.601494 -223.481126
140 7 2 -217.059610 154.198742 -224.129119
141 8 1 -218.750000 218.750000 -218.750000
142 8 2 -218.531152 218.231734 -212.776433
143 8 2 -219.703545 215.797901 -213.614257
144 8 2 -219.731043 221.920802 -213.751644
145 8 2 -214.722856 216.207855 -215.100395
146 8 2 -223.490632 217.348020 -215.349874
147 8 2 -215.592176 222.929729 -215.824591
148 8 2 -217.914160 212.995522 -217.271030
149 8 2 -223.195952 222.347508 -216.935765
150 8 2 -212.773617 218.995200 -218.278061
151 8 2 -222.972578 214.492799 -218.964655
152 8 2 -218.537746 224.744180 -218.907338
153 8 2 -215.023911 214.426727 -220.600829
154 8 2 -224.430333 219.620263 -220.475241
155 8 2 -214.458245 222.080933 -221.296709
156 8 2 -219.934195 214.178573 -222.451315
157 8 2 -221.143026 222.939661 -222.316534
158 8 2 -215.322411 218.045805 -223.623986
159 8 2 -221.430613 218.038143 -224.070486
160 8 2 -218.968848 219.268266 -224.723567
161 9 1 -156.250000 -218.750000 -218.750000
162 9 2 -153.152144 -214.217419 -216.329463
163 9 2 -151.400344 -215.246294 -218.297359
164 9 2 -154.967943 -216.289872 -213.429840
165 9 2 -155.623318 -213.010832 -220.383775
166 9 2 -150.670953 -219.293334 -216.610136
167 9 2 -159.273979 -215.137386 -215.034550
168 9 2 -152.761400 -216.248290 -222.941791
169 9 2 -154.517331 -220.993299 -213.461762
170 9 2 -160.064344 -214.404643 -220.352700
171 9 2 -151.150055 -221.116954 -220.844776
172 9 2 -159.910167 -219.626334 -214.077183
173 9 2 -157.113233 -216.910218 -224.395355
174 9 2 -153.887518 -223.967278 -216.961510
175 9 2 -162.223473 -218.186773 -218.769793
176 9 2 -154.673160 -221.527812 -223.829108
177 9 2 -158.850336 -223.573168 -216.305557
178 9 2 -160.486947 -219.838723 -222.856454
179 9 2 -156.710393 -224.290823 -221.005508
180 9 2 -159.347856 -223.282581 -221.170537
181 10 1 -156.250000 -156.250000 -218.750000
182 10 2 -154.471949 -150.962278 -216.541262
183 10 2 -152.530530 -151.547938 -218.513036
184 10 2 -155.620362 -153.343082 -213.539109
185 10 2 -157.227333 -150.619233 -220.577371
186 10 2 -150.707740 -155.181348 -216.714973
187 10 2 -160.096765 -153.461061 -215.086093
188 10 2 -153.624400 -153.049342 -223.093042
189 10 2 -153.908323 -157.745784 -213.432183
190 10 2 -161.121366 -153.163574 -220.406432
191 10 2 -150.724560 -157.218858 -220.878574
192 10 2 -159.476753 -157.916462 -213.973917
193 10 2 -157.649703 -154.919387 -224.430695
194 10 2 -152.536355 -160.562213 -216.849036
195 10 2 -162.151355 -157.329655 -218.658622
196 10 2 -154.039348 -158.678086 -223.771695
197 10 2 -157.410986 -161.505824 -216.098881
198 10 2 -160.081058 -158.595566 -222.727602
199 10 2 -155.214006 -161.785909 -220.818920
200 10 2 -158.028051 -161.537722 -220.958738
201 11 1 -156.250000 -93.750000 -218.750000
202 11 2 -159.317964 -96.482863 -214.377466
203 11 2 -156.618548 -96.792645 -213.591853
204 11 2 -160.899829 -97.450406 -217.921696
205 11 2 -158.173891 -91.819739 -213.404653
206 11 2 -155.159668 -99.357773 -216.915864
207 11 2 -162.199860 -92.976607 -218.782105
208 11 2 -153.323107 -93.109485 -213.551631
209 11 2 -157.963412 -98.887163 -221.333365
210 11 2 -159.203318 -88.879794 -216.863467
211 11 2 -151.315243 -96.781593 -217.182321
212 11 2 -160.529092 -94.177084 -222.934133
213 11 2 -153.695314 -89.129661 -215.899378
214 11 2 -153.515329 -97.868611 -222.149797
215 11 2 -159.006163 -89.174980 -221.483634
216 11 2 -150.416225 -92.395947 -218.384478
217 11 2 -156.235836 -94.507049 -224.702031
218 11 2 -154.459352 -88.293100 -220.486612
219 11 2 -151.634357 -93.316493 -222.558926
220 11 2 -153.182036 -91.017137 -223.122534
221 12 1 -156.250000 -31.250000 -218.750000
222 12 2 -161.876796 -31.728595 -216.722659
223 12 2 -162.048490 -29.709047 -218.695461
224 12 2 -159.333637 -31.843177 -213.637337
225 12 2 -160.965478 -34.381928 -220.738792
226 12 2 -159.499783 -26.596062 -216.805835
227 12 2 -157.395204 -35.898830 -215.133803
228 12 2 -160.089281 -30.102709 -223.215831
229 12 2 -155.981048 -28.521093 -213.413266
230 12 2 -157.089173 -36.942631 -220.449923
231 12 2 -157.490794 -25.789438 -220.904692
232 12 2 -153.592312 -33.560401 -213.892147
233 12 2 -156.730482 -33.047993 -224.454065
234 12 2 -153.834261 -26.132480 -216.756211
235 12 2 -152.915757 -36.234831 -218.564835
236 12 2 -154.741212 -28.242058 -223.717479
237 12 2 -151.054341 -30.231284 -215.927352
238 12 2 -152.447451 -33.820653 -222.614242
239 12 2 -151.519398 -28.091326 -220.658973
240 12 2 -150.623204 -30.771405 -220.777341
241 13 1 -156.250000 31.250000 -218.750000
242 13 2 -160.199139 35.057956 -216.320233
243 13 2 -158.894744 36.615798 -218.287892
244 13 2 -158.455247 32.918397 -213.425215
245 13 2 -161.806091 32.827513 -220.375209
246 13 2 -154.780694 36.657651 -216.605599
247 13 2 -160.312083 28.866934 -215.032409
248 13 2 -158.139547 35.112043 -222.935001
249 13 2 -153.742617 32.577854 -213.463240
250 13 2 -161.172881 28.216135 -220.350284
251 13 2 -153.067722 35.885897 -220.843220
252 13 2 -155.991085 27.489466 -214.081880
253 13 2 -158.214870 30.712471 -224.393611
254 13 2 -150.709479 32.706644 -216.966515
255 13 2 -157.802172 25.454299 -218.774680
256 13 2 -153.254155 32.347117 -223.831461
257 13 2 -151.925435 27.878417 -216.314725
258 13 2 -155.888553 26.895580 -222.861981
259 13 2 -150.866432 29.874083 -221.013635
260 13 2 -152.300861 27.442044 -221.179767
261 14 1 -156.250000 93.750000 -218.750000
262 14 2 -156.076179 93.774160 -212.752567
263 14 2 -158.212802 95.523504 -213.364641
264 14 2 -152.349983 93.959197 -214.195211
265 14 2 -159.273314 90.582606 -214.647905
266 14 2 -155.969413 98.748839 -215.443509
267 14 2 -152.692278 89.665849 -216.168852
268 14 2 -161.802810 94.460867 -216.591073
269 14 2 -151.442647 97.140397 -217.569083
270 14 2 -157.484747 87.923507 -218.023791
271 14 2 -159.280088 98.928232 -218.683040
272 14 2 -150.574337 91.987245 -219.574347
273 14 2 -161.573921 91.242385 -219.919501
274 14 2 -154.173559 98.980032 -220.832105
275 14 2 -154.461964 88.698584 -221.449281
276 14 2 -160.782195 96.016895 -221.962537
277 14 2 -152.054056 94.913443 -222.878008
278 14 2 -158.394395 90.540554 -223.343585
279 14 2 -156.895041 96.433136 -224.077730
280 14 2 -156.423821 93.725840 -224.747433
281 15 1 -156.250000 156.250000 -218.750000
282 15 2 -157.725537 152.962595 -213.952526
283 15 2 -160.018632 152.803391 -215.600667
284 15 2 -155.866802 156.298583 -212.762446
285 15 2 -155.913300 150.355221 -217.683129
286 15 2 -161.267078 157.069211 -215.562866
287 15 2 -151.823855 155.036269 -214.885275
288 15 2 -159.870278 151.770532 -220.431652
289 15 2 -157.337958 160.410639 -214.566051
290 15 2 -151.973774 152.099057 -219.445387
291 15 2 -162.059339 156.851055 -220.124887
292 15 2 -152.012023 159.520034 -216.039570
293 15 2 -156.152415 152.191828 -223.168339
294 15 2 -159.294679 161.419048 -218.645733
295 15 2 -150.427162 156.403335 -220.189114
296 15 2 -159.384182 156.274147 -223.866280
297 15 2 -154.338513 161.912174 -219.284796
298 15 2 -153.267288 155.853169 -223.940949
299 15 2 -157.481170 160.213906 -223.082628
300 15 2 -154.774463 159.537405 -223.547474
301 16 1 -156.250000 218.750000 -218.750000
302 16 2 -155.517565 222.984487 -214.562798
303 16 2 -157.816971 221.582635 -213.698191
304 16 2 -154.908605 224.570680 -218.184007
305 16 2 -153.502642 218.668672 -213.416576
306 16 2 -160.580468 222.537343 -217.046158
307 16 2 -151.112650 221.842818 -218.955213
308 16 2 -158.102687 216.655188 -213.441581
309 16 2 -158.126581 223.720551 -221.537842
310 16 2 -150.892837 216.859278 -216.819721
311 16 2 -161.987226 218.120985 -217.110313
312 16 2 -153.198648 221.562611 -223.083414
313 16 2 -155.351498 213.672215 -215.682625
314 16 2 -160.979537 220.123153 -222.177234
315 16 2 -151.265590 216.766907 -221.437564
316 16 2 -159.969608 214.080066 -218.153148
317 16 2 -156.777079 219.074754 -224.717975
318 16 2 -154.267267 213.293770 -220.266021
319 16 2 -159.620767 215.376003 -222.390614
320 16 2 -156.982435 214.515513 -222.937202
321 17 1 -93.750000 -218.750000 -218.750000
322 17 2 -94.627268 -218.415534 -212.823911
323 17 2 -93.538287 -220.999863 -213.191826
324 17 2 -97.781944 -216.859932 -214.728673
325 17 2 -90.090102 -217.233293 -214.243921
326 17 2 -96.789426 -222.848741 -215.593703
327 17 2 -95.186661 -213.348787 -216.567593
328 17 2 -89.523963 -221.932871 -215.919815
329 17 2 -99.696682 -219.368388 -218.245452
330 17 2 -89.964389 -214.198996 -217.771473
331 17 2 -93.612974 -224.737729 -218.391770
332 17 2 -97.736437 -214.525352 -220.253551
333 17 2 -87.779958 -219.152397 -219.193477
334 17 2 -97.818829 -222.436751 -221.169194
335 17 2 -92.555084 -213.587510 -221.564405
336 17 2 -90.518308 -223.052823 -221.403654
337 17 2 -97.462927 -217.949484 -223.394712
338 17 2 -89.797448 -217.170799 -222.978884
339 17 2 -93.843782 -221.653470 -223.999863
340 17 2 -92.872732 -219.084466 -224.676089
341 18 1 -93.750000 -156.250000 -218.750000
342 18 2 -89.928633 -159.457108 -215.416592
343 18 2 -90.866045 -161.316426 -217.330800
344 18 2 -92.164604 -157.150124 -213.033682
345 18 2 -87.942851 -157.571374 -219.478694
346 18 2 -95.154930 -161.484361 -216.175581
347 18 2 -90.363879 -153.171282 -214.869835
348 18 2 -91.095498 -160.395005 -222.181115
349 18 2 -96.843444 -157.173842 -213.692617
350 18 2 -88.854264 -153.046589 -220.080385
351 18 2 -96.341095 -161.315850 -220.653519
352 18 2 -94.848211 -152.028870 -214.629807
353 18 2 -91.098285 -156.189782 -224.131894
354 18 2 -99.377223 -157.916960 -217.502760
355 18 2 -92.564845 -150.391417 -219.271929
356 18 2 -95.980714 -158.123687 -223.995304
357 18 2 -98.554407 -152.968166 -217.284654
358 18 2 -93.834125 -152.414740 -223.363426
359 18 2 -98.863979 -155.543493 -221.807461
360 18 2 -97.571367 -153.042892 -222.083408
361 19 1 -93.750000 -93.750000 -218.750000
362 19 2 -97.058533 -92.588507 -213.881269
363 19 2 -97.441157 -90.306082 -215.507348
364 19 2 -93.556141 -94.167486 -212.767682
365 19 2 -99.574348 -94.589130 -217.578320
366 19 2 -93.295490 -88.703017 -215.537309
367 19 2 -94.513899 -98.288213 -214.900185
368 19 2 -98.549054 -90.508837 -220.319694
369 19 2 -89.617218 -92.343235 -214.634041
370 19 2 -97.539024 -98.355975 -219.404443
371 19 2 -93.665734 -87.901679 -220.087923
372 19 2 -90.084476 -97.715361 -216.134689
373 19 2 -97.868417 -94.159747 -223.094048
374 19 2 -88.854269 -90.281482 -218.715283
375 19 2 -93.134764 -99.529543 -220.239418
376 19 2 -94.086274 -90.591026 -223.839971
377 19 2 -87.958263 -95.174142 -219.403910
378 19 2 -93.992682 -96.721011 -223.957130
379 19 2 -89.986320 -92.160566 -223.144134
380 19 2 -90.441467 -94.911493 -223.618731
381 20 1 -93.750000 -31.250000 -218.750000
382 20 2 -90.684619 -35.833300 -216.384243
383 20 2 -92.302970 -37.059375 -218.353426
384 20 2 -91.915253 -33.400219 -213.457528
385 20 2 -88.666665 -33.956020 -220.434389
386 20 2 -96.320979 -36.242574 -216.637118
387 20 2 -89.250321 -29.820335 -215.047440
388 20 2 -92.751418 -35.384630 -222.981745
389 20 2 -96.448029 -32.065968 -213.453318
390 20 2 -88.305311 -29.315842 -220.366910
391 20 2 -97.858209 -35.083584 -220.853867
392 20 2 -93.173673 -27.565635 -214.049649
393 20 2 -91.752336 -31.087580 -224.405348
394 20 2 -99.461861 -31.513576 -216.931987
395 20 2 -91.001873 -25.916360 -218.740863
396 20 2 -96.943373 -31.636443 -223.814882
397 20 2 -97.243477 -27.060401 -216.251424
398 20 2 -93.204465 -26.878616 -222.823499
399 20 2 -98.732756 -28.739996 -220.957266
400 20 2 -96.815381 -26.666700 -221.115757
401 21 1 -93.750000 31.250000 -218.750000
402 21 2 -94.047048 33.095130 -213.048487
403 21 2 -92.293412 34.954215 -214.260330
404 21 2 -93.739136 29.108175 -213.145317
405 21 2 -97.170505 35.377256 -216.054467
406 21 2 -88.933617 32.240655 -215.311824
407 21 2 -97.923704 28.642776 -215.317424
408 21 2 -93.224240 37.223610 -218.551090
409 21 2 -90.369878 27.218017 -215.865925
410 21 2 -99.621776 32.483786 -218.753630
411 21 2 -88.620204 34.279307 -219.463086
412 21 2 -95.396484 25.576443 -217.701267
413 21 2 -96.255597 35.798417 -221.755642
414 21 2 -88.390431 28.751864 -219.767022
415 21 2 -98.626412 28.512844 -220.924531
416 21 2 -91.368611 34.509857 -223.188729
417 21 2 -92.314702 25.950416 -221.169572
418 21 2 -96.733050 31.636655 -223.941523
419 21 2 -90.791634 30.152955 -223.853388
420 21 2 -93.452952 29.404870 -224.451513
421 22 1 -93.750000 93.750000 -218.750000
422 22 2 -92.694179 88.279497 -216.523156
423 22 2 -90.951976 89.948053 -215.046453
424 22 2 -92.988307 88.063649 -220.506483
425 22 2 -95.967453 90.880693 -213.969835
426 22 2 -88.278719 91.325131 -218.319772
427 22 2 -97.530719 89.407974 -220.439074
428 22 2 -92.340350 94.195565 -212.934989
429 22 2 -90.502797 91.153413 -223.075900
430 22 2 -99.276090 92.826148 -216.603181
431 22 2 -88.465440 95.635281 -216.624174
432 22 2 -95.968995 91.910772 -224.012443
433 22 2 -96.096294 96.667989 -214.061690
434 22 2 -89.096762 95.467387 -222.126087
435 22 2 -99.292436 94.765966 -220.811362
436 22 2 -91.806354 98.820164 -216.197417
437 22 2 -93.577646 95.889712 -224.352850
438 22 2 -97.573548 98.344026 -218.225213
439 22 2 -91.999871 99.174512 -220.623957
440 22 2 -94.805821 99.220503 -220.976844
441 23 1 -93.750000 156.250000 -218.750000
442 23 2 -96.958897 153.556429 -214.454926
443 23 2 -98.923485 154.553584 -216.228645
444 23 2 -93.974033 155.631483 -212.786172
445 23 2 -96.085769 150.736761 -218.364801
446 23 2 -98.214721 158.916215 -215.757081
447 23 2 -90.678765 152.907034 -214.826723
448 23 2 -98.759037 153.962717 -221.132832
449 23 2 -93.350148 160.105935 -214.170493
450 23 2 -91.627011 150.719320 -219.701049
451 23 2 -98.570927 159.444261 -220.348550
452 23 2 -88.807409 157.099152 -215.456106
453 23 2 -94.971722 152.938621 -223.602027
454 23 2 -94.271932 162.202005 -218.201158
455 23 2 -88.316033 153.957570 -219.853074
456 23 2 -96.049668 158.065749 -223.985894
457 23 2 -89.548556 160.527075 -218.516568
458 23 2 -90.732739 155.017774 -223.787634
459 23 2 -92.725642 160.695553 -222.647146
460 23 2 -90.541103 158.943571 -223.045074
461 24 1 -93.750000 218.750000 -218.750000
462 24 2 -93.255114 223.934352 -215.770473
463 24 2 -91.204823 224.083576 -217.713162
464 24 2 -93.870578 220.956467 -213.171742
465 24 2 -95.961307 224.219261 -219.844211
466 24 2 -88.625685 220.733803 -216.340451
467 24 2 -98.180708 220.059016 -214.921775
468 24 2 -91.865353 223.039106 -222.498556
469 24 2 -91.200913 217.079466 -213.581686
470 24 2 -99.174173 220.869448 -220.194397
471 24 2 -88.120993 219.354693 -220.737115
472 24 2 -96.575734 215.744309 -214.393275
473 24 2 -95.339456 220.523622 -224.257077
474 24 2 -89.176582 215.154649 -217.281228
475 24 2 -99.250129 216.374169 -219.072506
476 24 2 -90.976084 217.614661 -223.947730
477 24 2 -93.717092 213.046725 -216.886785
478 24 2 -96.890849 216.193176 -223.176931
479 24 2 -91.450578 213.936852 -221.497047
480 24 2 -94.244886 213.565648 -221.729527
481 25 1 -31.250000 -218.750000 -218.750000
482 25 2 -29.919048 -217.068088 -213.146453
483 25 2 -27.401487 -217.152898 -214.432801
484 25 2 -32.650570 -219.988574 -213.048743
485 25 2 -30.439614 -213.341010 -216.282996
486 25 2 -27.161845 -221.500486 -215.326287
487 25 2 -35.886600 -217.301024 -215.228295
488 25 2 -26.488786 -215.099846 -218.834979
489 25 2 -31.848578 -223.851484 -215.648942
490 25 2 -34.308855 -213.589417 -218.858585
491 25 2 -25.574156 -220.514953 -219.568371
492 25 2 -36.509697 -221.323856 -217.442007
493 25 2 -29.683807 -213.949404 -221.990574
494 25 2 -29.499412 -224.425056 -219.603924
495 25 2 -36.626868 -217.085200 -220.827915
496 25 2 -27.374206 -218.475973 -223.321994
497 25 2 -34.256910 -223.475961 -220.900298
498 25 2 -33.137993 -216.488818 -223.977097
499 25 2 -30.213603 -221.866107 -223.771529
500 25 2 -32.580952 -220.431912 -224.353547
501 26 1 -31.250000 -156.250000 -218.750000
502 26 2 -33.973601 -154.784424 -213.608591
503 26 2 -34.111637 -152.408505 -215.136974
504 26 2 -30.689746 -156.925880 -212.814572
505 26 2 -37.033211 -156.227994 -217.151880
506 26 2 -29.779530 -151.462571 -215.445724
507 26 2 -32.432581 -160.763585 -214.977858
508 26 2 -35.584249 -152.250075 -219.852219
509 26 2 -26.660099 -155.657962 -214.931322
510 26 2 -35.750200 -160.188880 -219.233141
511 26 2 -30.349481 -150.436532 -219.930109
512 26 2 -28.069607 -160.831374 -216.537285
513 26 2 -35.686381 -155.850961 -222.769862
514 26 2 -25.882600 -153.580230 -219.001700
515 26 2 -31.656138 -161.992682 -220.440164
516 26 2 -31.456924 -152.880376 -223.710123
517 26 2 -25.815286 -158.521791 -219.891423
518 26 2 -32.332011 -158.942423 -224.001677
519 26 2 -27.613332 -155.088139 -223.378685
520 26 2 -28.526399 -157.715576 -223.891409
521 27 1 -31.250000 -93.750000 -218.750000
522 27 2 -34.163189 -93.589823 -213.507131
523 27 2 -35.348226 -91.494772 -214.992542
524 27 2 -30.256134 -94.134847 -212.845415
525 27 2 -36.438070 -96.189874 -216.980553
526 27 2 -31.840562 -88.797495 -215.414745
527 27 2 -30.276734 -98.345412 -215.017046
528 27 2 -36.906793 -91.968209 -219.658798
529 27 2 -27.219752 -91.271228 -215.060448
530 27 2 -33.665861 -99.226658 -219.162108
531 27 2 -32.942952 -88.102466 -219.863225
532 27 2 -26.352939 -96.550403 -216.706343
533 27 2 -35.568862 -95.265983 -222.629334
534 27 2 -27.535502 -89.052469 -219.118386
535 27 2 -29.236518 -99.118111 -220.518974
536 27 2 -33.034870 -90.778278 -223.647255
537 27 2 -25.406766 -93.495695 -220.088635
538 27 2 -31.262976 -96.637314 -224.009586
539 27 2 -28.608811 -91.144683 -223.465554
540 27 2 -28.336811 -93.910177 -223.992869
541 28 1 -31.250000 -31.250000 -218.750000
542 28 2 -31.087487 -32.533024 -212.891038
543 28 2 -29.322611 -30.337046 -213.141820
544 28 2 -30.989707 -35.928747 -215.002792
545 28 2 -34.276607 -29.009081 -214.079033
546 28 2 -26.179413 -32.187291 -215.682324
547 28 2 -35.322886 -35.184794 -216.767830
548 28 2 -30.409260 -26.200925 -215.619505
549 28 2 -27.901926 -36.225633 -218.567027
550 28 2 -37.039570 -30.114813 -217.658108
551 28 2 -26.028805 -28.335275 -218.256542
552 28 2 -33.112645 -36.657027 -220.565107
553 28 2 -33.707967 -25.777466 -218.848849
554 28 2 -26.100550 -32.955059 -221.314360
555 28 2 -36.388479 -32.457438 -221.602741
556 28 2 -28.994570 -26.222970 -221.125290
557 28 2 -30.243971 -34.618904 -223.611933
558 28 2 -34.535434 -28.260034 -222.783116
559 28 2 -28.683772 -29.654399 -223.933486
560 28 2 -31.412513 -29.966976 -224.608962
561 29 1 -31.250000 31.250000 -218.750000
562 29 2 -29.724985 32.324846 -213.047454
563 29 2 -27.284348 31.565362 -214.258436
564 29 2 -33.172317 30.298497 -213.146489
565 29 2 -29.043757 36.133935 -216.051913
566 29 2 -28.247691 27.355866 -215.311707
567 29 2 -35.425950 33.855019 -215.318481
568 29 2 -25.651729 33.399071 -218.547875
569 29 2 -33.390879 26.442385 -215.868424
570 29 2 -32.718242 37.067582 -218.752440
571 29 2 -26.276426 27.970246 -219.461883
572 29 2 -37.071058 30.239246 -217.704220
573 29 2 -28.261229 35.498484 -221.752937
574 29 2 -31.142173 25.338122 -219.768857
575 29 2 -35.848555 34.431206 -220.925596
576 29 2 -27.273737 30.542211 -223.187158
577 29 2 -35.380992 27.635315 -221.172592
578 29 2 -32.209354 34.101781 -223.941049
579 29 2 -30.935150 28.111920 -223.854246
580 29 2 -32.775015 30.175154 -224.452546
581 30 1 -31.250000 93.750000 -218.750000
582 30 2 -34.442147 96.069314 -214.229936
583 30 2 -34.147222 93.349696 -213.511120
584 30 2 -35.828600 97.484209 -217.704964
585 30 2 -29.615653 95.925944 -213.402648
586 30 2 -36.440650 91.448964 -216.810313
587 30 2 -31.761222 99.727136 -218.638221
588 30 2 -29.847830 90.915985 -213.650757
589 30 2 -36.708292 94.382979 -221.159644
590 30 2 -27.065758 97.633201 -216.902604
591 30 2 -33.114716 88.249435 -217.244470
592 30 2 -32.701302 97.928461 -222.803910
593 30 2 -26.109604 92.179287 -216.083694
594 30 2 -34.791527 90.273309 -222.121973
595 30 2 -27.448999 97.477099 -221.517873
596 30 2 -28.675790 88.333027 -218.577233
597 30 2 -32.162710 93.702748 -224.679985
598 30 2 -25.590990 93.202798 -220.667335
599 30 2 -29.957645 89.416248 -222.693147
600 30 2 -28.057853 91.430686 -223.270064
601 31 1 -31.250000 156.250000 -218.750000
602 31 2 -32.523205 158.369544 -213.283147
603 31 2 -31.515425 160.627952 -214.655725
604 31 2 -30.760290 154.794485 -212.949857
605 31 2 -36.096502 159.033922 -216.567984
606 31 2 -27.338398 159.278487 -215.354763
607 31 2 -34.349942 152.603547 -215.131473
608 31 2 -32.978608 161.979566 -219.178938
609 31 2 -26.785823 154.054528 -215.395746
610 31 2 -37.152533 155.198979 -218.985501
611 31 2 -27.569856 160.893975 -219.693418
612 31 2 -30.741109 150.494783 -217.131819
613 31 2 -35.086788 159.237175 -222.265088
614 31 2 -25.299224 155.848389 -219.403430
615 31 2 -34.642661 151.703435 -220.704124
616 31 2 -29.997881 159.737615 -223.468976
617 31 2 -27.827696 151.668882 -220.566918
618 31 2 -33.871972 155.014813 -224.003530
619 31 2 -27.817263 155.868881 -223.656227
620 31 2 -29.976795 154.130456 -224.216853
621 32 1 -31.250000 218.750000 -218.750000
622 32 2 -36.851656 218.321699 -216.643341
623 32 2 -35.424705 216.398054 -215.138880
624 32 2 -36.947188 218.645060 -220.629105
625 32 2 -33.949387 221.272569 -214.022426
626 32 2 -34.291724 213.590478 -218.393283
627 32 2 -35.095307 223.004274 -220.514869
628 32 2 -31.092762 217.289192 -212.932671
629 32 2 -34.106754 215.827408 -223.142882
630 32 2 -31.583313 224.341893 -216.600667
631 32 2 -30.025713 213.281348 -216.606414
632 32 2 -32.711010 221.172997 -224.040986
633 32 2 -28.184530 220.740299 -213.991680
634 32 2 -30.002634 213.936714 -222.108028
635 32 2 -29.564611 224.143661 -220.766900
636 32 2 -26.490442 216.236290 -216.098987
637 32 2 -29.024407 218.343774 -224.307132
638 32 2 -26.262159 222.023458 -218.112881
639 32 2 -26.021613 216.395355 -220.516244
640 32 2 -25.648344 219.178301 -220.856659
641 33 1 31.250000 -218.750000 -218.750000
642 33 2 30.511984 -216.176820 -213.380263
643 33 2 29.103827 -218.618824 -213.148506
644 33 2 30.065978 -213.425873 -216.249648
645 33 2 34.249244 -219.337557 -213.586734
646 33 2 25.903359 -217.927289 -216.154508
647 33 2 34.569496 -213.874335 -217.650527
648 33 2 30.940258 -222.996733 -214.522789
649 33 2 27.213256 -214.455391 -219.872957
650 33 2 37.056655 -218.679587 -217.240760
651 33 2 26.483726 -222.248482 -217.728602
652 33 2 32.428826 -213.693016 -221.756206
653 33 2 34.474192 -223.641028 -217.452916
654 33 2 26.091475 -218.517017 -221.805379
655 33 2 36.339285 -217.453554 -221.651448
656 33 2 29.908937 -224.481537 -219.912338
657 33 2 30.095282 -216.808547 -224.308542
658 33 2 35.195584 -222.047119 -221.842147
659 33 2 29.294083 -221.892141 -223.472429
660 33 2 31.988016 -221.323180 -224.119737
661 34 1 31.250000 -156.250000 -218.750000
662 34 2 36.693327 -156.081221 -216.231726
663 34 2 35.246774 -154.098267 -214.826246
664 34 2 37.069933 -156.399405 -220.201226
665 34 2 33.474333 -158.903360 -213.849793
666 34 2 34.486364 -151.234677 -218.139688
667 34 2 35.020021 -160.670333 -220.249201
668 34 2 30.727181 -154.796961 -212.952126
669 34 2 34.553977 -153.449964 -222.902534
670 34 2 31.170296 -161.856193 -216.613591
671 34 2 30.117716 -150.736370 -216.672065
672 34 2 32.989186 -158.724618 -223.931843
673 34 2 27.752992 -158.110075 -214.243221
674 34 2 30.473768 -151.377342 -222.163894
675 34 2 29.477583 -161.556954 -220.916744
676 34 2 26.424894 -153.528981 -216.444699
677 34 2 29.463856 -155.730389 -224.454357
678 34 2 26.086108 -159.295172 -218.502722
679 34 2 26.278727 -153.656432 -220.885381
680 34 2 25.806673 -156.418779 -221.268274
681 35 1 31.250000 -93.750000 -218.750000
682 35 2 26.420548 -93.530926 -215.196354
683 35 2 27.963879 -95.629852 -214.095157
684 35 2 25.285932 -93.149416 -219.013041
685 35 2 30.253545 -90.980979 -213.521271
686 35 2 27.830213 -98.512537 -217.475915
687 35 2 27.602231 -89.044818 -219.495012
688 35 2 32.805852 -95.290630 -213.163786
689 35 2 26.982941 -96.255505 -222.143324
690 35 2 32.177452 -88.185281 -216.707027