LAMMPS chain data file

10240 atoms
0 bonds
0 angles
0 dihedrals
0 impropers

2 atom types
0 bond types
0 angle types
0 dihedral types
0 improper types

-250.000000 250.000000 xlo xhi
-250.000000 250.000000 ylo yhi
-250.000000 250.000000 zlo zhi

Masses

1 94.247780
2 18.84956

Atoms

1 1 1 -218.750000 -218.750000 -218.750000
2 1 2 -220.019358 -214.263867 -222.526684
3 1 2 -221.871208 -215.064958 -222.310692
4 1 2 -221.205815 -213.743647 -220.964814
5 1 2 -219.281369 -213.199122 -220.964814
6 1 2 -218.022316 -213.975909 -222.310692
7 1 2 -218.687709 -215.297220 -223.656570
8 1 2 -220.612155 -215.841745 -223.656570
9 1 2 -222.866810 -214.795291 -220.597200
10 1 2 -220.376618 -213.001245 -219.303106
11 1 2 -217.315609 -213.224570 -220.597200
12 1 2 -216.744791 -215.241941 -223.185387
13 1 2 -219.234982 -217.035987 -224.479481
14 1 2 -222.295992 -216.812662 -223.185387
15 1 2 -223.470001 -216.405814 -221.618167
16 1 2 -222.171333 -213.826971 -218.991376
17 1 2 -218.415334 -212.764205 -218.991376
18 1 2 -215.958002 -214.280283 -221.618167
19 1 2 -217.256670 -216.859127 -224.244958
20 1 2 -221.012669 -217.921892 -224.244958
21 2 1 -218.750000 -156.250000 -218.750000
22 2 2 -222.197570 -155.615808 -223.619503
23 2 2 -222.362236 -157.619075 -223.341012
24 2 2 -223.563826 -156.381260 -222.329085
25 2 2 -223.201990 -154.414263 -222.329085
26 2 2 -221.638565 -153.685082 -223.341012
27 2 2 -220.436975 -154.922897 -224.352938
28 2 2 -220.798810 -156.889893 -224.352938
29 2 2 -223.468734 -158.314944 -221.827265
30 2 2 -224.276178 -155.233442 -220.854274
31 2 2 -222.424994 -152.641003 -221.827265
32 2 2 -219.766366 -153.130066 -223.773247
33 2 2 -218.958921 -156.211568 -224.746238
34 2 2 -220.810105 -158.804007 -223.773247
35 2 2 -222.074429 -159.607415 -222.448098
36 2 2 -224.419609 -157.191534 -220.473091
37 2 2 -223.713404 -153.352488 -220.473091
38 2 2 -220.662020 -151.929323 -222.448098
39 2 2 -218.316840 -154.345204 -224.423105
40 2 2 -219.023045 -158.184250 -224.423105
41 3 1 -218.750000 -93.750000 -218.750000
42 3 2 -219.312854 -89.794345 -214.273842
43 3 2 -221.260719 -90.302317 -214.529838
44 3 2 -220.088663 -91.440715 -213.376437
45 3 2 -218.108607 -91.158971 -213.376437
46 3 2 -217.300608 -89.738829 -214.529838
47 3 2 -218.472665 -88.600431 -215.683239
48 3 2 -220.452720 -88.882175 -215.683239
49 3 2 -221.898940 -92.096250 -213.917890
50 3 2 -218.868110 -92.919943 -212.808868
51 3 2 -216.187329 -91.283539 -213.917890
52 3 2 -216.537379 -88.823443 -216.135935
53 3 2 -219.568209 -87.999750 -217.244957
54 3 2 -222.248989 -89.636153 -216.135935
55 3 2 -223.041988 -91.295804 -215.350624
56 3 2 -220.754451 -93.517649 -213.099496
57 3 2 -216.889916 -92.967761 -213.099496
58 3 2 -215.312920 -90.196027 -215.350624
59 3 2 -217.600458 -87.974182 -217.601751
60 3 2 -221.464992 -88.524070 -217.601751
61 4 1 -218.750000 -31.250000 -218.750000
62 4 2 -218.883479 -34.622762 -223.710510
63 4 2 -216.877410 -34.508960 -223.426814
64 4 2 -217.933255 -35.900271 -222.452419
65 4 2 -219.931690 -35.821181 -222.452419
66 4 2 -220.874281 -34.350781 -223.426814
67 4 2 -219.818436 -32.959470 -224.401209
68 4 2 -217.820001 -33.038559 -224.401209
69 4 2 -216.033156 -35.545198 -221.939049
70 4 2 -218.969919 -36.806931 -221.002145
71 4 2 -221.797786 -35.317059 -221.939049
72 4 2 -221.688889 -32.565456 -223.812856
73 4 2 -218.752126 -31.303723 -224.749759
74 4 2 -215.924260 -32.793595 -223.812856
75 4 2 -214.950963 -33.965773 -222.517213
76 4 2 -217.011687 -36.681237 -220.615458
77 4 2 -220.912094 -36.526876 -220.615458
78 4 2 -222.751776 -33.657051 -222.517213
79 4 2 -220.691052 -30.941587 -224.418968
80 4 2 -216.790645 -31.095948 -224.418968
81 5 1 -218.750000 31.250000 -218.750000
82 5 2 -213.075742 30.118600 -220.338311
83 5 2 -213.009173 32.144697 -220.247474
84 5 2 -212.755061 31.074344 -218.577213
85 5 2 -213.146146 29.112954 -218.577213
86 5 2 -213.791343 28.221916 -220.247474
87 5 2 -214.045455 29.292268 -221.917735
88 5 2 -213.654370 31.253659 -221.917735
89 5 2 -213.033972 33.051625 -218.465097
90 5 2 -213.165674 30.136532 -216.859102
91 5 2 -214.162084 27.393855 -218.465097
92 5 2 -215.026791 27.566270 -221.677089
93 5 2 -214.895088 30.481363 -223.283084
94 5 2 -213.898679 33.224040 -221.677089
95 5 2 -213.677446 34.218874 -219.956228
96 5 2 -213.181488 32.129835 -216.696329
97 5 2 -213.944780 28.301730 -216.696329
98 5 2 -215.204030 26.562665 -219.956228
99 5 2 -215.699989 28.651704 -223.216127
100 5 2 -214.936697 32.479809 -223.216127
101 6 1 -218.750000 93.750000 -218.750000
102 6 2 -216.553780 90.947786 -213.920485
103 6 2 -215.105242 92.341772 -214.196689
104 6 2 -216.752319 92.822213 -213.168917
105 6 2 -218.326461 91.588488 -213.168917
106 6 2 -218.253526 89.874322 -214.196689
107 6 2 -216.606450 89.393881 -215.224461
108 6 2 -215.032308 90.627606 -215.224461
109 6 2 -215.479827 94.253699 -213.744777
110 6 2 -218.577105 93.529398 -212.756550
111 6 2 -220.020551 90.694931 -213.744777
112 6 2 -218.366719 88.584765 -215.721231
113 6 2 -215.269442 89.309065 -216.709458
114 6 2 -213.825995 92.143532 -215.721231
115 6 2 -214.009802 94.029783 -215.082270
116 6 2 -217.224450 94.967475 -213.076337
117 6 2 -220.296750 92.559576 -213.076337
118 6 2 -220.154402 89.213987 -215.082270
119 6 2 -216.939753 88.276296 -217.088204
120 6 2 -213.867453 90.684194 -217.088204
121 7 1 -218.750000 156.250000 -218.750000
122 7 2 -215.329105 152.098807 -216.091979
123 7 2 -213.981302 153.608134 -216.243993
124 7 2 -215.241000 153.564323 -214.691175
125 7 2 -216.784447 152.292407 -214.691175
126 7 2 -217.068196 151.064302 -216.243993
127 7 2 -215.808499 151.108113 -217.796811
128 7 2 -214.265052 152.380029 -217.796811
129 7 2 -214.147745 155.201035 -215.046094
130 7 2 -216.843034 153.935932 -213.553023
131 7 2 -218.599927 151.532102 -215.046094
132 7 2 -217.661531 150.393376 -218.032236
133 7 2 -214.966241 151.658479 -219.525307
134 7 2 -213.209348 154.062309 -218.032236
135 7 2 -213.139642 155.579853 -216.731391
136 7 2 -215.598231 155.494346 -213.700709
137 7 2 -218.610623 153.011908 -213.700709
138 7 2 -219.164426 150.614978 -216.731391
139 7 2 -216.705837 150.700486 -219.762072
140 7 2 -213.693445 153.182923 -219.762072
141 8 1 -218.750000 218.750000 -218.750000
142 8 2 -216.426224 213.246949 -219.312578
143 8 2 -214.716656 214.339693 -219.280404
144 8 2 -215.574714 213.801073 -217.555984
145 8 2 -217.417181 213.023053 -217.555984
146 8 2 -218.401591 212.783654 -219.280404
147 8 2 -217.543533 213.322274 -221.004824
148 8 2 -215.701066 214.100294 -221.004824
149 8 2 -214.099068 215.151056 -217.559859
150 8 2 -216.695687 213.885076 -215.901788
151 8 2 -219.413796 212.906804 -217.559859
152 8 2 -219.535286 213.194512 -220.876001
153 8 2 -216.938668 214.460492 -222.534072
154 8 2 -214.220559 215.438764 -220.876001
155 8 2 -213.389232 216.089243 -219.177245
156 8 2 -215.063928 215.038002 -215.811642
157 8 2 -218.659927 213.519518 -215.811642
158 8 2 -220.581229 213.052276 -219.177245
159 8 2 -218.906533 214.103517 -222.542848
160 8 2 -215.310534 215.622001 -222.542848
161 9 1 -156.250000 -218.750000 -218.750000
162 9 2 -154.884178 -216.751618 -224.240082
163 9 2 -156.613479 -215.737380 -223.926099
164 9 2 -154.893611 -214.993200 -223.227350
165 9 2 -153.242422 -216.121728 -223.227350
166 9 2 -153.311102 -217.994436 -223.926099
167 9 2 -155.030970 -218.738615 -224.624848
168 9 2 -156.682159 -217.610087 -224.624848
169 9 2 -156.635584 -214.202068 -222.644565
170 9 2 -153.394233 -214.571628 -221.972702
171 9 2 -151.872613 -217.457387 -222.644565
172 9 2 -153.592344 -219.973586 -223.988292
173 9 2 -156.833696 -219.604025 -224.660156
174 9 2 -158.355316 -216.718266 -223.988292
175 9 2 -158.435414 -215.029766 -222.919391
176 9 2 -155.078695 -213.577328 -221.555622
177 9 2 -151.856021 -215.779911 -221.555622
178 9 2 -151.990065 -219.434930 -222.919391
179 9 2 -155.346783 -220.887367 -224.283160
180 9 2 -158.569458 -218.684785 -224.283160
181 10 1 -156.250000 -156.250000 -218.750000
182 10 2 -155.546023 -154.156452 -224.328662
183 10 2 -157.481979 -153.638737 -224.009613
184 10 2 -156.020853 -152.431027 -223.372006
185 10 2 -154.125157 -153.068474 -223.372006
186 10 2 -153.690589 -154.913632 -224.009613
187 10 2 -155.151716 -156.121342 -224.647221
188 10 2 -157.047411 -155.483895 -224.647221
189 10 2 -157.905064 -152.121588 -222.777031
190 10 2 -154.677400 -151.573267 -222.163956
191 10 2 -152.436796 -153.960350 -222.777031
192 10 2 -153.423856 -156.895755 -224.003181
193 10 2 -156.651521 -157.444076 -224.616256
194 10 2 -158.892124 -155.056993 -224.003181
195 10 2 -159.415257 -153.415950 -222.986663
196 10 2 -156.563532 -151.058825 -221.742224
197 10 2 -152.863646 -152.302950 -221.742224
198 10 2 -152.015486 -155.904200 -222.986663
199 10 2 -154.867211 -158.261324 -224.231101
200 10 2 -158.567097 -157.017200 -224.231101
201 11 1 -156.250000 -93.750000 -218.750000
202 11 2 -152.984986 -90.841610 -214.641357
203 11 2 -154.502015 -89.514524 -214.876334
204 11 2 -154.722510 -91.050143 -213.614092
205 11 2 -153.392210 -92.543563 -213.614092
206 11 2 -151.841415 -92.501363 -214.876334
207 11 2 -151.620920 -90.965744 -216.138576
208 11 2 -152.951220 -89.472324 -216.138576
209 11 2 -156.304534 -89.935536 -214.118921
210 11 2 -155.237430 -92.848029 -212.905246
211 11 2 -152.467190 -94.243411 -214.118921
212 11 2 -150.764052 -92.726301 -216.546272
213 11 2 -151.831156 -89.813808 -217.759947
214 11 2 -154.601396 -88.418425 -216.546272
215 11 2 -156.366802 -88.626498 -215.629730
216 11 2 -156.797149 -91.623613 -213.166175
217 11 2 -154.200763 -94.538365 -213.166175
218 11 2 -151.174030 -94.456003 -215.629730
219 11 2 -150.743683 -91.458888 -218.093285
220 11 2 -153.340069 -88.544136 -218.093285
221 12 1 -156.250000 -31.250000 -218.750000
222 12 2 -158.270047 -31.421818 -224.397113
223 12 2 -157.985018 -33.404796 -224.074150
224 12 2 -159.694084 -32.546552 -223.488907
225 12 2 -159.863585 -30.553748 -223.488907
226 12 2 -158.324019 -29.419187 -224.074150
227 12 2 -156.614953 -30.277431 -224.659392
228 12 2 -156.445452 -32.270235 -224.659392
229 12 2 -159.247543 -34.399947 -222.884316
230 12 2 -161.053830 -31.658596 -222.321591
231 12 2 -159.736480 -28.651561 -222.884316
232 12 2 -156.612843 -28.385876 -224.009766
233 12 2 -154.806557 -31.127226 -224.572491
234 12 2 -156.123906 -34.134261 -224.009766
235 12 2 -157.453286 -35.269902 -223.038647
236 12 2 -160.788922 -33.594842 -221.896411
237 12 2 -161.119742 -29.705425 -221.896411
238 12 2 -158.114925 -27.491069 -223.038647
239 12 2 -154.779289 -29.166129 -224.180883
240 12 2 -154.448469 -33.055546 -224.180883
241 13 1 -156.250000 31.250000 -218.750000
242 13 2 -157.999085 32.936555 -224.236003
243 13 2 -159.287298 31.400385 -223.922254
244 13 2 -159.733194 33.219504 -223.220840
245 13 2 -158.344950 34.659219 -223.220840
246 13 2 -156.510809 34.279814 -223.922254
247 13 2 -156.064913 32.460694 -224.623667
248 13 2 -157.453157 31.020980 -224.623667
249 13 2 -160.803218 31.633296 -222.638611
250 13 2 -159.897128 34.766742 -221.964185
251 13 2 -156.798729 35.786254 -222.638611
252 13 2 -154.606419 33.672321 -223.987462
253 13 2 -155.512509 30.538875 -224.661887
254 13 2 -158.610908 29.519362 -223.987462
255 13 2 -160.287804 29.720904 -222.916294
256 13 2 -161.158073 33.271334 -221.547324
257 13 2 -158.448595 36.081269 -221.547324
258 13 2 -154.868848 35.340772 -222.916294
259 13 2 -153.998579 31.790342 -224.285263
260 13 2 -156.708057 28.980408 -224.285263
261 14 1 -156.250000 93.750000 -218.750000
262 14 2 -162.190328 92.924344 -218.574508
263 14 2 -161.575258 90.990607 -218.584544
264 14 2 -161.662749 91.988060 -216.853235
265 14 2 -161.938085 93.969017 -216.853235
266 14 2 -162.125931 94.952521 -218.584544
267 14 2 -162.038441 93.955068 -220.315854
268 14 2 -161.763104 91.974111 -220.315854
269 14 2 -160.745564 90.212853 -216.939337
270 14 2 -161.094430 93.076665 -215.274642
271 14 2 -161.539791 95.927064 -216.939337
272 14 2 -161.636286 95.913652 -220.268728
273 14 2 -161.287419 93.049841 -221.933423
274 14 2 -160.842058 90.199442 -220.268728
275 14 2 -160.223944 89.256670 -218.616724
276 14 2 -160.394701 91.203429 -215.237675
277 14 2 -160.932083 95.069722 -215.237675
278 14 2 -161.298708 96.989256 -218.616724
279 14 2 -161.127951 95.042498 -221.995773
280 14 2 -160.590568 91.176205 -221.995773
281 15 1 -156.250000 156.250000 -218.750000
282 15 2 -158.214511 151.873191 -222.353366
283 15 2 -156.277528 151.304528 -222.147286
284 15 2 -157.615794 150.765025 -220.762374
285 15 2 -159.440425 151.584002 -220.762374
286 15 2 -159.926789 152.942483 -222.147286
287 15 2 -158.588523 153.481986 -223.532197
288 15 2 -156.763893 152.663009 -223.532197
289 15 2 -155.661925 150.515870 -220.415509
290 15 2 -158.703125 150.784591 -219.083884
291 15 2 -160.925201 152.878268 -220.415509
292 15 2 -160.106077 154.703225 -223.078759
293 15 2 -157.064877 154.434504 -224.410384
294 15 2 -154.842801 152.340827 -223.078759
295 15 2 -154.180743 151.327652 -221.486542
296 15 2 -156.792677 150.274686 -218.783569
297 15 2 -160.353864 151.873109 -218.783569
298 15 2 -161.303115 154.524497 -221.486542
299 15 2 -158.691181 155.577462 -224.189515
300 15 2 -155.129995 153.979039 -224.189515
301 16 1 -156.250000 218.750000 -218.750000
302 16 2 -156.963659 214.624063 -214.452636
303 16 2 -154.952107 214.519153 -214.698406
304 16 2 -155.726040 215.911982 -213.489665
305 16 2 -157.696777 216.252859 -213.489665
306 16 2 -158.893581 215.200906 -214.698406
307 16 2 -158.119648 213.808077 -215.907148
308 16 2 -156.148911 213.467200 -215.907148
309 16 2 -153.797927 216.001929 -214.013393
310 16 2 -156.436992 217.668928 -212.851160
311 16 2 -159.482657 216.985211 -214.013393
312 16 2 -159.889258 214.634495 -216.337859
313 16 2 -157.250193 212.967497 -217.500093
314 16 2 -154.204528 213.651214 -216.337859
315 16 2 -152.945635 214.951298 -215.486407
316 16 2 -154.456143 217.669724 -213.127271
317 16 2 -158.302489 218.335023 -213.127271
318 16 2 -160.638328 216.281895 -215.486407
319 16 2 -159.127820 213.563468 -217.845544
320 16 2 -155.281474 212.898170 -217.845544
321 17 1 -93.750000 -218.750000 -218.750000
322 17 2 -88.212707 -220.861142 -217.811135
323 17 2 -87.816899 -218.871619 -217.864830
324 17 2 -88.426390 -219.709460 -216.154115
325 17 2 -89.138881 -221.578244 -216.154115
326 17 2 -89.241881 -222.609189 -217.864830
327 17 2 -88.632390 -221.771349 -219.575545
328 17 2 -87.919899 -219.902564 -219.575545
329 17 2 -88.360190 -217.717805 -216.324198
330 17 2 -89.631306 -220.320289 -214.679305
331 17 2 -90.415420 -223.108447 -216.324198
332 17 2 -89.928417 -223.294121 -219.613983
333 17 2 -88.657300 -220.691637 -221.258875
334 17 2 -87.873187 -217.903479 -219.613983
335 17 2 -88.154165 -216.705924 -218.036988
336 17 2 -89.343727 -218.341162 -214.698135
337 17 2 -90.734317 -221.988525 -214.698135
338 17 2 -90.935345 -224.000651 -218.036988
339 17 2 -89.745783 -222.365412 -221.375841
340 17 2 -88.355194 -218.718049 -221.375841
341 18 1 -93.750000 -156.250000 -218.750000
342 18 2 -91.196659 -158.392909 -223.738826
343 18 2 -90.056970 -156.738384 -223.453511
344 18 2 -89.596695 -158.430182 -222.491238
345 18 2 -90.882411 -159.962152 -222.491238
346 18 2 -92.628403 -159.802325 -223.453511
347 18 2 -93.088679 -158.110527 -224.415783
348 18 2 -91.802962 -156.578557 -224.415783
349 18 2 -88.711174 -156.713038 -221.974257
350 18 2 -89.504856 -159.812767 -221.049009
351 18 2 -92.419915 -161.132114 -221.974257
352 18 2 -94.541293 -159.351733 -223.824752
353 18 2 -93.747612 -156.252004 -224.749999
354 18 2 -90.832552 -154.932656 -223.824752
355 18 2 -89.301517 -154.887420 -222.538717
356 18 2 -88.403184 -158.189352 -220.660622
357 18 2 -90.912556 -161.179344 -220.660622
358 18 2 -94.320261 -160.867405 -222.538717
359 18 2 -95.218594 -157.565472 -224.416813
360 18 2 -92.709222 -154.575480 -224.416813
361 19 1 -93.750000 -93.750000 -218.750000
362 19 2 -98.343873 -92.137276 -222.256488
363 19 2 -98.743627 -94.116602 -222.055949
364 19 2 -99.367477 -92.837762 -220.650467
365 19 2 -98.704995 -90.950669 -220.650467
366 19 2 -97.418663 -90.342417 -222.055949
367 19 2 -96.794812 -91.621258 -223.461430
368 19 2 -97.457294 -93.508350 -223.461430
369 19 2 -99.444829 -94.807934 -220.315151
370 19 2 -99.407683 -91.763815 -218.963748
371 19 2 -97.533852 -89.364483 -220.315151
372 19 2 -95.697167 -90.009269 -223.017959
373 19 2 -95.734312 -93.053388 -224.369363
374 19 2 -97.608143 -95.452721 -223.017959
375 19 2 -98.531759 -96.208327 -221.412969
376 19 2 -99.749347 -93.712376 -218.669849
377 19 2 -98.456360 -90.029281 -218.669849
378 19 2 -95.945787 -88.842137 -221.412969
379 19 2 -94.728200 -91.338088 -224.156090
380 19 2 -96.021186 -95.021183 -224.156090
381 20 1 -93.750000 -31.250000 -218.750000
382 20 2 -92.434790 -33.216477 -224.263909
383 20 2 -90.847558 -31.992140 -223.948563
384 20 2 -90.793884 -33.871161 -223.265628
385 20 2 -92.456334 -34.983033 -223.265628
386 20 2 -94.172459 -34.215884 -223.948563
387 20 2 -94.226133 -32.336863 -224.631499
388 20 2 -92.563683 -31.224991 -224.631499
389 20 2 -89.407483 -32.554176 -222.679589
390 20 2 -90.954359 -35.429990 -222.022930
391 20 2 -94.202938 -35.761450 -222.679589
392 20 2 -95.904641 -33.217096 -223.992905
393 20 2 -94.357765 -30.341282 -224.649564
394 20 2 -91.109186 -30.009822 -223.992905
395 20 2 -89.506523 -30.573348 -222.937486
396 20 2 -89.401765 -34.240689 -221.604581
397 20 2 -92.646419 -36.410763 -221.604581
398 20 2 -95.995830 -34.913496 -222.937486
399 20 2 -96.100588 -31.246155 -224.270391
400 20 2 -92.855934 -29.076081 -224.270391
401 21 1 -93.750000 31.250000 -218.750000
402 21 2 -94.656219 36.879034 -220.618888
403 21 2 -96.578967 36.239217 -220.512005
404 21 2 -95.677430 36.930804 -218.866120
405 21 2 -93.702854 37.248691 -218.866120
406 21 2 -92.629816 36.874991 -220.512005
407 21 2 -93.531354 36.183404 -222.157890
408 21 2 -95.505929 35.865517 -222.157890
409 21 2 -97.434109 35.985668 -218.721908
410 21 2 -94.668658 36.956301 -217.139351
411 21 2 -91.738306 36.902636 -218.721908
412 21 2 -91.573404 35.878338 -221.887023
413 21 2 -94.338855 34.907705 -223.469581
414 21 2 -97.269207 34.961370 -221.887023
415 21 2 -98.292058 34.904487 -220.169310
416 21 2 -96.532500 36.254278 -216.956986
417 21 2 -92.678662 36.874708 -216.956986
418 21 2 -90.584382 36.145347 -220.169310
419 21 2 -92.343939 34.795556 -223.381633
420 21 2 -96.197777 34.175126 -223.381633
421 22 1 -93.750000 93.750000 -218.750000
422 22 2 -94.171999 95.936493 -213.178540
423 22 2 -96.111624 95.432435 -213.497177
424 22 2 -94.824955 94.042742 -212.854343
425 22 2 -92.861195 94.421753 -212.854343
426 22 2 -92.184105 96.190456 -213.497177
427 22 2 -93.470774 97.580149 -214.140012
428 22 2 -95.434533 97.201138 -214.140012
429 22 2 -96.640241 93.503559 -213.497784
430 22 2 -93.514877 92.531764 -212.879683
431 22 2 -90.975638 94.596842 -213.497784
432 22 2 -91.561762 97.633715 -214.733985
433 22 2 -94.687126 98.605510 -215.352086
434 22 2 -97.226366 96.540432 -214.733985
435 22 2 -97.903211 94.670785 -214.518807
436 22 2 -95.391981 91.958480 -213.264168
437 22 2 -91.559252 92.698206 -213.264168
438 22 2 -90.237755 96.150238 -214.518807
439 22 2 -92.748986 98.862544 -215.773447
440 22 2 -96.581714 98.122817 -215.773447
441 23 1 -93.750000 156.250000 -218.750000
442 23 2 -97.039719 153.488587 -222.939552
443 23 2 -95.565726 152.114658 -222.699947
444 23 2 -97.134980 152.103019 -221.460066
445 23 2 -98.420832 153.634876 -221.460066
446 23 2 -98.137429 155.178372 -222.699947
447 23 2 -96.568174 155.190010 -223.939828
448 23 2 -95.282323 153.658153 -223.939828
449 23 2 -95.522378 150.996144 -221.042525
450 23 2 -98.267630 152.457870 -219.850350
451 23 2 -99.231508 155.414894 -221.042525
452 23 2 -97.450134 156.910192 -223.426875
453 23 2 -94.704882 155.448466 -224.619050
454 23 2 -93.741004 152.491442 -223.426875
455 23 2 -93.738711 151.163099 -221.931716
456 23 2 -96.801473 151.140384 -219.511803
457 23 2 -99.311108 154.130156 -219.511803
458 23 2 -98.757981 157.142642 -221.931716
459 23 2 -95.695220 157.165357 -224.351628
460 23 2 -93.185585 154.175586 -224.351628
461 24 1 -93.750000 218.750000 -218.750000
462 24 2 -93.466868 221.716044 -223.957919
463 24 2 -95.474011 221.736464 -223.660073
464 24 2 -94.335674 223.138032 -222.799958
465 24 2 -92.344725 222.947981 -222.799958
466 24 2 -91.492111 221.356362 -223.660073
467 24 2 -92.630447 219.954794 -224.520188
468 24 2 -94.621397 220.144845 -224.520188
469 24 2 -96.248656 222.930154 -222.254716
470 24 2 -93.239773 224.095056 -221.427694
471 24 2 -90.505620 222.381937 -222.254716
472 24 2 -90.780349 219.503917 -223.908758
473 24 2 -93.789232 218.339015 -224.735779
474 24 2 -96.523385 220.052134 -223.908758
475 24 2 -97.420775 221.373463 -222.705105
476 24 2 -95.199050 224.108945 -221.026392
477 24 2 -91.313253 223.738016 -221.026392
478 24 2 -89.649182 220.631605 -222.705105
479 24 2 -91.870907 217.896123 -224.383818
480 24 2 -95.756703 218.267052 -224.383818
481 25 1 -31.250000 -218.750000 -218.750000
482 25 2 -27.772765 -214.355848 -220.894822
483 25 2 -29.539978 -213.366070 -220.772157
484 25 2 -28.371592 -213.501085 -219.154553
485 25 2 -26.803245 -214.742169 -219.154553
486 25 2 -26.403285 -215.848237 -220.772157
487 25 2 -27.571671 -215.713221 -222.389762
488 25 2 -29.140017 -214.472138 -222.389762
489 25 2 -30.250350 -212.838280 -218.978611
490 25 2 -27.618917 -214.161432 -217.423246
491 25 2 -25.726343 -216.418273 -218.978611
492 25 2 -26.465202 -217.351963 -222.089341
493 25 2 -29.096635 -216.028811 -223.644707
494 25 2 -30.989209 -213.771970 -222.089341
495 25 2 -31.670236 -212.990642 -220.378865
496 25 2 -29.389862 -213.254156 -217.221737
497 25 2 -26.328872 -215.676416 -217.221737
498 25 2 -25.548257 -217.835163 -220.378865
499 25 2 -27.828631 -217.571649 -223.535992
500 25 2 -30.889621 -215.149388 -223.535992
501 26 1 -31.250000 -156.250000 -218.750000
502 26 2 -35.777541 -153.813721 -221.842882
503 26 2 -36.466315 -155.714260 -221.665997
504 26 2 -36.778697 -154.410582 -220.181800
505 26 2 -35.830988 -152.649375 -220.181800
506 26 2 -34.570898 -152.191847 -221.665997
507 26 2 -34.258516 -153.495526 -223.150194
508 26 2 -35.206225 -155.256732 -223.150194
509 26 2 -37.138677 -156.356967 -219.895444
510 26 2 -36.527795 -153.410007 -218.468353
511 26 2 -34.404943 -151.276642 -219.895444
512 26 2 -32.892974 -152.090236 -222.749624
513 26 2 -33.503857 -155.037195 -224.176715
514 26 2 -35.626708 -157.170560 -222.749624
515 26 2 -36.538070 -157.837190 -221.098860
516 26 2 -37.147755 -155.292762 -218.202108
517 26 2 -35.298083 -151.855362 -218.202108
518 26 2 -32.838726 -150.962391 -221.098860
519 26 2 -32.229042 -153.506820 -223.995611
520 26 2 -34.078714 -156.944219 -223.995611
521 27 1 -31.250000 -93.750000 -218.750000
522 27 2 -36.484961 -93.462165 -221.667590
523 27 2 -36.295370 -95.475610 -221.500730
524 27 2 -37.081435 -94.430879 -219.987244
525 27 2 -36.971634 -92.433895 -219.987244
526 27 2 -36.075768 -91.481643 -221.500730
527 27 2 -35.289703 -92.526373 -223.014216
528 27 2 -35.399504 -94.523357 -223.014216
529 27 2 -36.571202 -96.346351 -219.721481
530 27 2 -37.221446 -93.421670 -218.266228
531 27 2 -36.254474 -90.585910 -219.721481
532 27 2 -34.637258 -90.674830 -222.631986
533 27 2 -33.987013 -93.599510 -224.087238
534 27 2 -34.953985 -96.435271 -222.631986
535 27 2 -35.439943 -97.428979 -220.965736
536 27 2 -36.974130 -95.389947 -218.011820
537 27 2 -36.759829 -91.492374 -218.011820
538 27 2 -35.011341 -89.633833 -220.965736
539 27 2 -33.477154 -91.672866 -223.919652
540 27 2 -33.691455 -95.570439 -223.919652
541 28 1 -31.250000 -31.250000 -218.750000
542 28 2 -31.986239 -25.437480 -217.456724
543 28 2 -33.928279 -26.021224 -217.530688
544 28 2 -32.889292 -26.265941 -215.839351
545 28 2 -30.905146 -26.014620 -215.839351
546 28 2 -29.959986 -25.518583 -217.530688
547 28 2 -30.998973 -25.273866 -219.222025
548 28 2 -32.983120 -25.525187 -219.222025
549 28 2 -34.678971 -27.133983 -216.048045
550 28 2 -31.772157 -27.127633 -214.421785
551 28 2 -28.955559 -26.409031 -216.048045
552 28 2 -29.045776 -25.696778 -219.300566
553 28 2 -31.952591 -25.703127 -220.926826
554 28 2 -34.769188 -26.421730 -219.300566
555 28 2 -35.681648 -27.326246 -217.767834
556 28 2 -33.653826 -27.803868 -214.466801
557 28 2 -29.781308 -27.313358 -214.466801
558 28 2 -27.936611 -26.345226 -217.767834
559 28 2 -29.964433 -25.867605 -221.068867
560 28 2 -33.836952 -26.358115 -221.068867
561 29 1 -31.250000 31.250000 -218.750000
562 29 2 -26.588849 34.535225 -220.615735
563 29 2 -28.007621 35.982102 -220.509032
564 29 2 -26.991289 35.475002 -218.862848
565 29 2 -25.839093 33.840241 -218.862848
566 29 2 -25.703229 32.712579 -220.509032
567 29 2 -26.719561 33.219678 -222.155215
568 29 2 -27.871757 34.854440 -222.155215
569 29 2 -28.611543 36.638653 -218.718999
570 29 2 -26.526452 34.579204 -217.136154
571 29 2 -25.287952 31.923068 -218.718999
572 29 2 -26.134543 31.326383 -221.884687
573 29 2 -28.219634 33.385832 -223.467531
574 29 2 -29.458134 36.041968 -221.884687
575 29 2 -29.958908 36.935546 -220.166915
576 29 2 -27.975303 35.945825 -216.954009
577 29 2 -25.726527 32.755213 -216.954009
578 29 2 -25.461357 30.554321 -220.166915
579 29 2 -27.444963 31.544042 -223.379820
580 29 2 -29.693739 34.734654 -223.379820
581 30 1 -31.250000 93.750000 -218.750000
582 30 2 -27.593237 91.093110 -214.804240
583 30 2 -26.626772 92.863074 -215.029902
584 30 2 -28.136065 92.723595 -213.725072
585 30 2 -29.311663 91.105582 -213.725072
586 30 2 -28.977969 89.627046 -215.029902
587 30 2 -27.468677 89.766525 -216.334732
588 30 2 -26.293078 91.384538 -216.334732
589 30 2 -27.398941 94.517511 -214.213451
590 30 2 -29.980528 92.827641 -212.958826
591 30 2 -30.790038 89.850236 -214.213451
592 30 2 -29.017963 88.562701 -216.722701
593 30 2 -26.436377 90.252571 -217.977326
594 30 2 -25.626866 93.229976 -216.722701
595 30 2 -26.178455 94.890176 -215.753430
596 30 2 -29.124187 94.617952 -213.206754
597 30 2 -31.418638 91.460026 -213.206754
598 30 2 -30.767357 88.574324 -215.753430
599 30 2 -27.821625 88.846548 -218.300106
600 30 2 -25.527174 92.004474 -218.300106
601 31 1 -31.250000 156.250000 -218.750000
602 31 2 -34.065077 160.936344 -221.222553
603 31 2 -35.618538 159.638457 -221.081145
604 31 2 -35.128851 160.765252 -219.503001
605 31 2 -33.414394 161.795123 -219.503001
606 31 2 -32.189622 161.698199 -221.081145
607 31 2 -32.679308 160.571404 -222.659290
608 31 2 -34.393766 159.541533 -222.659290
609 31 2 -36.417606 159.250862 -219.289147
610 31 2 -34.298269 161.324547 -217.771723
611 31 2 -31.472131 162.221598 -219.289147
612 31 2 -30.765328 161.044963 -222.323993
613 31 2 -32.884665 158.971277 -223.841416
614 31 2 -35.710804 158.074227 -222.323993
615 31 2 -36.734042 157.798970 -220.627757
616 31 2 -35.778307 159.998170 -217.547645
617 31 2 -32.432148 162.008200 -217.547645
618 31 2 -30.041725 161.819030 -220.627757
619 31 2 -30.997460 159.619830 -223.707869
620 31 2 -34.343619 157.609800 -223.707869
621 32 1 -31.250000 218.750000 -218.750000
622 32 2 -29.149472 218.910606 -213.131994
623 32 2 -29.422078 220.895600 -213.453293
624 32 2 -30.962900 219.774870 -212.845153
625 32 2 -30.810425 217.780691 -212.845153
626 32 2 -29.117129 216.907241 -213.453293
627 32 2 -27.576308 218.027971 -214.061433
628 32 2 -27.728782 220.022150 -214.061433
629 32 2 -31.277618 221.640879 -213.492429
630 32 2 -32.612546 218.645820 -212.907688
631 32 2 -30.837794 215.888527 -213.492429
632 32 2 -27.728114 216.126292 -214.661910
633 32 2 -26.393185 219.121351 -215.246651
634 32 2 -28.167937 221.878644 -214.661910
635 32 2 -29.952363 222.764070 -214.483458
636 32 2 -32.959631 220.576709 -213.296533
637 32 2 -32.662042 216.684609 -213.296533
638 32 2 -29.357185 214.979871 -214.483458
639 32 2 -26.349917 217.167232 -215.670383
640 32 2 -26.647507 221.059332 -215.670383
641 33 1 31.250000 -218.750000 -218.750000
642 33 2 32.730413 -223.911633 -216.073076
643 33 2 34.568237 -223.065043 -216.226172
644 33 2 33.393945 -222.597925 -214.676062
645 33 2 31.471455 -223.149317 -214.676062
646 33 2 30.723257 -224.167825 -216.226172
647 33 2 31.897549 -224.634943 -217.776281
648 33 2 33.820039 -224.083552 -217.776281
649 33 2 35.049278 -221.533742 -215.032975
650 33 2 32.071648 -221.614773 -213.542508
651 33 2 29.503719 -223.124269 -215.032975
652 33 2 29.913418 -224.552734 -218.013910
653 33 2 32.891047 -224.471703 -219.504377
654 33 2 35.458977 -222.962207 -218.013910
655 33 2 36.126467 -221.593787 -216.717035
656 33 2 33.834566 -220.682099 -213.691640
657 33 2 30.082385 -221.758266 -213.691640
658 33 2 28.622104 -223.746120 -216.717035
659 33 2 30.914005 -224.657807 -219.742431
660 33 2 34.666187 -223.581641 -219.742431
661 34 1 31.250000 -156.250000 -218.750000
662 34 2 28.732936 -156.328045 -213.304057
663 34 2 28.938873 -158.322621 -213.615515
664 34 2 30.479234 -157.274379 -212.888552
665 34 2 30.417251 -155.275340 -212.888552
666 34 2 28.814906 -154.324543 -213.615515
667 34 2 27.274545 -155.372785 -214.342478
668 34 2 27.336528 -157.371824 -214.342478
669 34 2 30.756699 -159.151253 -213.521292
670 34 2 32.178195 -156.221220 -212.822300
671 34 2 30.577904 -153.384882 -213.521292
672 34 2 27.556117 -153.478577 -214.919276
673 34 2 26.134621 -156.408610 -215.618268
674 34 2 27.734912 -159.244948 -214.919276
675 34 2 29.459414 -160.210856 -214.614130
676 34 2 32.465784 -158.164971 -213.195294
677 34 2 32.344810 -154.263386 -213.195294
678 34 2 29.217465 -152.407686 -214.614130
679 34 2 26.211095 -154.453571 -216.032965
680 34 2 26.332070 -158.355156 -216.032965
681 35 1 31.250000 -93.750000 -218.750000
682 35 2 34.799995 -93.911035 -213.915581
683 35 2 34.687598 -91.903880 -214.192066
684 35 2 33.248140 -92.839611 -213.166217
685 35 2 33.157509 -94.837557 -213.166217
686 35 2 34.506337 -95.899771 -214.192066
687 35 2 35.945795 -94.964039 -215.217916
688 35 2 36.036426 -92.966094 -215.217916
689 35 2 32.992957 -90.941527 -213.742548
690 35 2 31.521740 -93.762327 -212.756169